;;
;; Generated by CHARMM-GUI FF-Converter
;;
;; Correspondance:
;; jul316@lehigh.edu or wonpil@lehigh.edu
;;
;; The main GROMACS topology file
;;

; Include forcefield parameters
#include "toppar/forcefield.itp"
#include "toppar/charmm36.itp"
#include "toppar/PROA.itp"
#include "toppar/GDM.itp"
#include "toppar/POT.itp"
#include "toppar/CLA.itp"
#include "toppar/TIP3.itp"

[ system ]
; Name
Title in water

[ molecules ]
; Compound	#mols
PROA  	           1
GDM		   4
TIP3        20599
POT              77
CLA               61
