define                  = -DPOSRES -DPOSRES_FC_BB=400.0 -DPOSRES_FC_SC=40.0 ; -DDIHRES -DDIHRES_FC=4.0
integrator              = md
dt                      = 0.002
nsteps                  = 250000
;nstxtcout               = 0
nstvout                 = 0
nstfout                 = 0
nstcalcenergy           = 0
nstenergy               = 0
nstlog                  = 1000
nstxout-compressed      = 5000
compressed-x-precision  = 1000
;
cutoff-scheme           = Verlet
nstlist                 = 20
rlist                   = 1.2
coulombtype             = pme
rcoulomb                = 1.2
vdwtype                 = Cut-off
vdw-modifier            = Force-switch
rvdw_switch             = 1.0
rvdw                    = 1.2
;
tcoupl                  = v-rescale
tc_grps                 = PROT    SOL_ION
tau_t                   = 1.0   1.0
ref_t                   = 310.15   310.15
;
pcoupl                  = Parrinello-Rahman
pcoupltype              = isotropic
tau_p                   = 5.0
compressibility         = 4.5e-5
ref_p                   = 1.0
;
constraints             = h-bonds
constraint_algorithm    = LINCS
continuation            = yes
;
nstcomm                 = 100
comm_mode               = linear
comm_grps               = PROT    SOL_ION
;
refcoord_scaling        = com
