integrator              = md
dt                      = 0.002
nsteps                  = 100000000
nstvout                 = 0
nstfout                 = 0
nstxout                 = 0
nstcalcenergy           = 100
nstenergy               = 1000
nstlog                  = 50
nstxout-compressed      = 5000
compressed-x-precision  = 1000
;
cutoff-scheme           = Verlet
nstlist                 = 20
rlist                   = 1.2
coulombtype             = pme
rcoulomb                = 1.2
vdwtype                 = Cut-off
vdw-modifier            = Force-switch
rvdw_switch             = 1.0
rvdw                    = 1.2
;
tcoupl                  = v-rescale
tc_grps                 = PROT    SOL_ION
tau_t                   = 1.0   1.0
ref_t                   = 310.15   310.15
;
pcoupl                  = Parrinello-Rahman
pcoupltype              = isotropic
tau_p                   = 5.0
compressibility         = 4.5e-5
ref_p                   = 1.0
;
constraints             = h-bonds
constraint_algorithm    = LINCS
continuation            = yes
;
nstcomm                 = 100
comm_mode               = linear
comm_grps               = PROT    SOL_ION
;
refcoord_scaling        = com
;
;
ramd				= yes
ramd-seed			= 1786
ramd-ngroups			= 1
ramd-group1-receptor		= Protein
ramd-group1-ligand		= GDM-H
ramd-group1-receptor-pbcatom	= 2190
ramd-group1-ligand-pbcatom	= 3592
;
ramd-eval-freq			= 50
ramd-group1-force		= 360
ramd-group1-r-min-dist		= 0.0025
ramd-group1-max-dist		= 4.0
ramd-force-out-freq		= 50
